Variables = r  z  P  T  S_hyd  S_aqu  S_gas  S_ice  X_inh  k_rg  k_rw  k_adj_F  perm_abs  porosity  P_cap
ZONE T= " 3.13500000E+00", F=POINT I=   330
 0.0000000E+00 -5.0000000E-01  5.7414606E+03  1.0000000E-02  0.0000000E+00  3.7244969E-01  4.1145471E-01  2.1609559E-01  0.0000000E+00  9.8099849E-02  3.4022837E-02  4.6104962E-01  2.9600000E-13  2.7201029E-01 -4.8220448E+03
 0.0000000E+00 -1.5000000E+00  5.7489665E+03  1.0000000E-02  0.0000000E+00  3.7252692E-01  4.1141549E-01  2.1605760E-01  0.0000000E+00  9.8042339E-02  3.4048841E-02  4.6112124E-01  2.9600000E-13  2.7201031E-01 -4.8207904E+03
 0.0000000E+00 -2.5000000E+00  5.7489570E+03  1.0000000E-02  0.0000000E+00  3.7252681E-01  4.1141551E-01  2.1605768E-01  0.0000000E+00  9.8042404E-02  3.4048812E-02  4.6112107E-01  2.9600000E-13  2.7201031E-01 -4.8207918E+03
 0.0000000E+00 -3.5000000E+00  5.7490374E+03  1.0000000E-02  0.0000000E+00  3.7252766E-01  4.1141514E-01  2.1605720E-01  0.0000000E+00  9.8041802E-02  3.4049084E-02  4.6112199E-01  2.9600000E-13  2.7201031E-01 -4.8207787E+03
 0.0000000E+00 -4.5000000E+00  5.7490040E+03  1.0000000E-02  0.0000000E+00  3.7252730E-01  4.1141529E-01  2.1605741E-01  0.0000000E+00  9.8042054E-02  3.4048970E-02  4.6112158E-01  2.9600000E-13  2.7201031E-01 -4.8207842E+03
 0.0000000E+00 -5.5000000E+00  5.7488741E+03  1.0000000E-02  0.0000000E+00  3.7252592E-01  4.1141587E-01  2.1605820E-01  0.0000000E+00  9.8043024E-02  3.4048532E-02  4.6112010E-01  2.9600000E-13  2.7201031E-01 -4.8208053E+03
 0.0000000E+00 -6.5000000E+00  5.7488543E+03  1.0000000E-02  0.0000000E+00  3.7252571E-01  4.1141596E-01  2.1605833E-01  0.0000000E+00  9.8043173E-02  3.4048464E-02  4.6111986E-01  2.9600000E-13  2.7201031E-01 -4.8208086E+03
 0.0000000E+00 -7.5000000E+00  5.7490062E+03  1.0000000E-02  0.0000000E+00  3.7252733E-01  4.1141529E-01  2.1605737E-01  0.0000000E+00  9.8042037E-02  3.4048978E-02  4.6112166E-01  2.9600000E-13  2.7201031E-01 -4.8207838E+03
 0.0000000E+00 -8.5000000E+00  5.7489813E+03  1.0000000E-02  0.0000000E+00  3.7252706E-01  4.1141538E-01  2.1605757E-01  0.0000000E+00  9.8042217E-02  3.4048897E-02  4.6112129E-01  2.9600000E-13  2.7201031E-01 -4.8207877E+03
 0.0000000E+00 -9.5000000E+00  5.7565955E+03  1.0000000E-02  0.0000000E+00  3.7260534E-01  4.1137573E-01  2.1601894E-01  0.0000000E+00  9.7984005E-02  3.4075245E-02  4.6119411E-01  2.9600000E-13  2.7201033E-01 -4.8195179E+03
 5.9161000E-02 -5.0000000E-01  4.5011612E+06  5.4387651E+00  3.3422110E-01  5.3194464E-01  1.3383426E-01  0.0000000E+00  0.0000000E+00  1.8584707E-03  3.7300800E-01  2.7233509E-01  2.9600000E-13  2.8451731E-01 -1.6373193E+03
 5.9161000E-02 -1.5000000E+00  4.5009746E+06  5.4383490E+00  3.3420844E-01  5.3195331E-01  1.3383825E-01  0.0000000E+00  0.0000000E+00  1.8585547E-03  3.7300352E-01  2.7235188E-01  2.9600000E-13  2.8451678E-01 -1.6373333E+03
 5.9161000E-02 -2.5000000E+00  4.5009751E+06  5.4383502E+00  3.3420844E-01  5.3195332E-01  1.3383824E-01  0.0000000E+00  0.0000000E+00  1.8585542E-03  3.7300355E-01  2.7235188E-01  2.9600000E-13  2.8451678E-01 -1.6373332E+03
 5.9161000E-02 -3.5000000E+00  4.5009723E+06  5.4383439E+00  3.3420831E-01  5.3195340E-01  1.3383829E-01  0.0000000E+00  0.0000000E+00  1.8585560E-03  3.7300345E-01  2.7235206E-01  2.9600000E-13  2.8451677E-01 -1.6373335E+03
 5.9161000E-02 -4.5000000E+00  4.5009737E+06  5.4383471E+00  3.3420838E-01  5.3195335E-01  1.3383827E-01  0.0000000E+00  0.0000000E+00  1.8585552E-03  3.7300349E-01  2.7235196E-01  2.9600000E-13  2.8451677E-01 -1.6373334E+03
 5.9161000E-02 -5.5000000E+00  4.5009782E+06  5.4383571E+00  3.3420858E-01  5.3195324E-01  1.3383818E-01  0.0000000E+00  0.0000000E+00  1.8585523E-03  3.7300365E-01  2.7235169E-01  2.9600000E-13  2.8451679E-01 -1.6373329E+03
 5.9161000E-02 -6.5000000E+00  4.5009790E+06  5.4383588E+00  3.3420861E-01  5.3195322E-01  1.3383816E-01  0.0000000E+00  0.0000000E+00  1.8585519E-03  3.7300367E-01  2.7235165E-01  2.9600000E-13  2.8451679E-01 -1.6373329E+03
 5.9161000E-02 -7.5000000E+00  4.5009733E+06  5.4383461E+00  3.3420836E-01  5.3195337E-01  1.3383827E-01  0.0000000E+00  0.0000000E+00  1.8585554E-03  3.7300348E-01  2.7235199E-01  2.9600000E-13  2.8451677E-01 -1.6373334E+03
 5.9161000E-02 -8.5000000E+00  4.5009746E+06  5.4383491E+00  3.3420841E-01  5.3195334E-01  1.3383825E-01  0.0000000E+00  0.0000000E+00  1.8585544E-03  3.7300354E-01  2.7235192E-01  2.9600000E-13  2.8451678E-01 -1.6373333E+03
 5.9161000E-02 -9.5000000E+00  4.5007842E+06  5.4379245E+00  3.3419558E-01  5.3196212E-01  1.3384230E-01  0.0000000E+00  0.0000000E+00  1.8586407E-03  3.7299893E-01  2.7236894E-01  2.9600000E-13  2.8451623E-01 -1.6373477E+03
 1.0383000E-01 -5.0000000E-01  8.1072114E+06  1.1089993E+01  4.7907260E-01  4.6679590E-01  5.4131500E-02  0.0000000E+00  0.0000000E+00  1.0858372E-04  6.1914592E-01  1.2181228E-01  2.9600000E-13  2.9496438E-01 -1.0185632E+03
 1.0383000E-01 -1.5000000E+00  8.1072191E+06  1.1090001E+01  4.7907271E-01  4.6679612E-01  5.4131174E-02  0.0000000E+00  0.0000000E+00  1.0858093E-04  6.1914775E-01  1.2181220E-01  2.9600000E-13  2.9496440E-01 -1.0185593E+03
 1.0383000E-01 -2.5000000E+00  8.1072193E+06  1.1090002E+01  4.7907271E-01  4.6679613E-01  5.4131162E-02  0.0000000E+00  0.0000000E+00  1.0858083E-04  6.1914782E-01  1.2181219E-01  2.9600000E-13  2.9496440E-01 -1.0185591E+03
 1.0383000E-01 -3.5000000E+00  8.1072189E+06  1.1090001E+01  4.7907270E-01  4.6679612E-01  5.4131184E-02  0.0000000E+00  0.0000000E+00  1.0858100E-04  6.1914770E-01  1.2181220E-01  2.9600000E-13  2.9496440E-01 -1.0185594E+03
 1.0383000E-01 -4.5000000E+00  8.1072193E+06  1.1090002E+01  4.7907272E-01  4.6679612E-01  5.4131164E-02  0.0000000E+00  0.0000000E+00  1.0858085E-04  6.1914780E-01  1.2181218E-01  2.9600000E-13  2.9496440E-01 -1.0185592E+03
 1.0383000E-01 -5.5000000E+00  8.1072199E+06  1.1090002E+01  4.7907273E-01  4.6679614E-01  5.4131132E-02  0.0000000E+00  0.0000000E+00  1.0858058E-04  6.1914798E-01  1.2181218E-01  2.9600000E-13  2.9496440E-01 -1.0185588E+03
 1.0383000E-01 -6.5000000E+00  8.1072201E+06  1.1090002E+01  4.7907273E-01  4.6679614E-01  5.4131127E-02  0.0000000E+00  0.0000000E+00  1.0858053E-04  6.1914801E-01  1.2181218E-01  2.9600000E-13  2.9496440E-01 -1.0185587E+03
 1.0383000E-01 -7.5000000E+00  8.1072190E+06  1.1090001E+01  4.7907270E-01  4.6679612E-01  5.4131178E-02  0.0000000E+00  0.0000000E+00  1.0858096E-04  6.1914773E-01  1.2181220E-01  2.9600000E-13  2.9496440E-01 -1.0185593E+03
 1.0383000E-01 -8.5000000E+00  8.1072195E+06  1.1090002E+01  4.7907271E-01  4.6679613E-01  5.4131154E-02  0.0000000E+00  0.0000000E+00  1.0858075E-04  6.1914787E-01  1.2181219E-01  2.9600000E-13  2.9496440E-01 -1.0185590E+03
 1.0383000E-01 -9.5000000E+00  8.1072266E+06  1.1090010E+01  4.7907282E-01  4.6679633E-01  5.4130856E-02  0.0000000E+00  0.0000000E+00  1.0857821E-04  6.1914954E-01  1.2181211E-01  2.9600000E-13  2.9496442E-01 -1.0185555E+03
 1.9813000E-01 -5.0000000E-01  9.3181128E+06  1.2327401E+01  4.9934933E-01  4.9564327E-01  5.0073915E-03  0.0000000E+00  0.0000000E+00  1.3621277E-23  9.5721806E-01  1.0674542E-01  2.9600000E-13  2.9855782E-01 -2.5578742E+02
 1.9813000E-01 -1.5000000E+00  9.3181954E+06  1.2327478E+01  4.9935053E-01  4.9564469E-01  5.0047773E-03  0.0000000E+00  0.0000000E+00  0.0000000E+00  9.5723993E-01  1.0674456E-01  2.9600000E-13  2.9855806E-01 -2.5571305E+02
 1.9813000E-01 -2.5000000E+00  9.3181961E+06  1.2327479E+01  4.9935054E-01  4.9564470E-01  5.0047548E-03  0.0000000E+00  0.0000000E+00  0.0000000E+00  9.5724012E-01  1.0674456E-01  2.9600000E-13  2.9855806E-01 -2.5571241E+02
 1.9813000E-01 -3.5000000E+00  9.3181961E+06  1.2327479E+01  4.9935054E-01  4.9564470E-01  5.0047566E-03  0.0000000E+00  0.0000000E+00  0.0000000E+00  9.5724011E-01  1.0674456E-01  2.9600000E-13  2.9855806E-01 -2.5571246E+02
 1.9813000E-01 -4.5000000E+00  9.3181961E+06  1.2327479E+01  4.9935055E-01  4.9564470E-01  5.0047525E-03  0.0000000E+00  0.0000000E+00  0.0000000E+00  9.5724014E-01  1.0674455E-01  2.9600000E-13  2.9855806E-01 -2.5571235E+02
 1.9813000E-01 -5.5000000E+00  9.3181962E+06  1.2327479E+01  4.9935055E-01  4.9564470E-01  5.0047524E-03  0.0000000E+00  0.0000000E+00  0.0000000E+00  9.5724014E-01  1.0674456E-01  2.9600000E-13  2.9855806E-01 -2.5571234E+02
 1.9813000E-01 -6.5000000E+00  9.3181962E+06  1.2327479E+01  4.9935055E-01  4.9564470E-01  5.0047518E-03  0.0000000E+00  0.0000000E+00  0.0000000E+00  9.5724015E-01  1.0674456E-01  2.9600000E-13  2.9855807E-01 -2.5571232E+02
 1.9813000E-01 -7.5000000E+00  9.3181961E+06  1.2327479E+01  4.9935054E-01  4.9564470E-01  5.0047560E-03  0.0000000E+00  0.0000000E+00  0.0000000E+00  9.5724011E-01  1.0674456E-01  2.9600000E-13  2.9855806E-01 -2.5571244E+02
 1.9813000E-01 -8.5000000E+00  9.3181969E+06  1.2327480E+01  4.9935056E-01  4.9564471E-01  5.0047304E-03  0.0000000E+00  0.0000000E+00  0.0000000E+00  9.5724033E-01  1.0674455E-01  2.9600000E-13  2.9855807E-01 -2.5571172E+02
 1.9813000E-01 -9.5000000E+00  9.3182793E+06  1.2327557E+01  4.9935175E-01  4.9564613E-01  5.0021202E-03  0.0000000E+00  0.0000000E+00  0.0000000E+00  9.5726216E-01  1.0674370E-01  2.9600000E-13  2.9855831E-01 -2.5563744E+02
 3.0954000E-01 -5.0000000E-01  9.6266085E+06  1.2488334E+01  5.0091272E-01  4.9908728E-01  0.0000000E+00  0.0000000E+00  0.0000000E+00  0.0000000E+00  1.0000000E+00  1.0563831E-01  2.9600000E-13  2.9948028E-01  0.0000000E+00
 3.0954000E-01 -1.5000000E+00  9.6268032E+06  1.2488347E+01  5.0091169E-01  4.9908831E-01  0.0000000E+00  0.0000000E+00  0.0000000E+00  0.0000000E+00  1.0000000E+00  1.0563904E-01  2.9600000E-13  2.9948086E-01  0.0000000E+00
 3.0954000E-01 -2.5000000E+00  9.6268057E+06  1.2488347E+01  5.0091168E-01  4.9908832E-01  0.0000000E+00  0.0000000E+00  0.0000000E+00  0.0000000E+00  1.0000000E+00  1.0563904E-01  2.9600000E-13  2.9948087E-01  0.0000000E+00
 3.0954000E-01 -3.5000000E+00  9.6268057E+06  1.2488347E+01  5.0091168E-01  4.9908832E-01  0.0000000E+00  0.0000000E+00  0.0000000E+00  0.0000000E+00  1.0000000E+00  1.0563904E-01  2.9600000E-13  2.9948087E-01  0.0000000E+00
 3.0954000E-01 -4.5000000E+00  9.6268057E+06  1.2488347E+01  5.0091168E-01  4.9908832E-01  0.0000000E+00  0.0000000E+00  0.0000000E+00  0.0000000E+00  1.0000000E+00  1.0563904E-01  2.9600000E-13  2.9948087E-01  0.0000000E+00
 3.0954000E-01 -5.5000000E+00  9.6268057E+06  1.2488347E+01  5.0091168E-01  4.9908832E-01  0.0000000E+00  0.0000000E+00  0.0000000E+00  0.0000000E+00  1.0000000E+00  1.0563904E-01  2.9600000E-13  2.9948087E-01  0.0000000E+00
 3.0954000E-01 -6.5000000E+00  9.6268057E+06  1.2488347E+01  5.0091168E-01  4.9908832E-01  0.0000000E+00  0.0000000E+00  0.0000000E+00  0.0000000E+00  1.0000000E+00  1.0563904E-01  2.9600000E-13  2.9948087E-01  0.0000000E+00
 3.0954000E-01 -7.5000000E+00  9.6268057E+06  1.2488347E+01  5.0091168E-01  4.9908832E-01  0.0000000E+00  0.0000000E+00  0.0000000E+00  0.0000000E+00  1.0000000E+00  1.0563904E-01  2.9600000E-13  2.9948087E-01  0.0000000E+00
 3.0954000E-01 -8.5000000E+00  9.6268081E+06  1.2488348E+01  5.0091167E-01  4.9908833E-01  0.0000000E+00  0.0000000E+00  0.0000000E+00  0.0000000E+00  1.0000000E+00  1.0563905E-01  2.9600000E-13  2.9948087E-01  0.0000000E+00
 3.0954000E-01 -9.5000000E+00  9.6270029E+06  1.2488361E+01  5.0091064E-01  4.9908936E-01  0.0000000E+00  0.0000000E+00  0.0000000E+00  0.0000000E+00  1.0000000E+00  1.0563978E-01  2.9600000E-13  2.9948146E-01  0.0000000E+00
 4.4266000E-01 -5.0000000E-01  9.7531772E+06  1.2496844E+01  5.0024632E-01  4.9975368E-01  0.0000000E+00  0.0000000E+00  0.0000000E+00  0.0000000E+00  1.0000000E+00  1.0610928E-01  2.9600000E-13  2.9985956E-01  0.0000000E+00
 4.4266000E-01 -1.5000000E+00  9.7534132E+06  1.2496860E+01  5.0024508E-01  4.9975492E-01  0.0000000E+00  0.0000000E+00  0.0000000E+00  0.0000000E+00  1.0000000E+00  1.0611016E-01  2.9600000E-13  2.9986027E-01  0.0000000E+00
 4.4266000E-01 -2.5000000E+00  9.7534163E+06  1.2496860E+01  5.0024506E-01  4.9975494E-01  0.0000000E+00  0.0000000E+00  0.0000000E+00  0.0000000E+00  1.0000000E+00  1.0611017E-01  2.9600000E-13  2.9986028E-01  0.0000000E+00
 4.4266000E-01 -3.5000000E+00  9.7534164E+06  1.2496860E+01  5.0024506E-01  4.9975494E-01  0.0000000E+00  0.0000000E+00  0.0000000E+00  0.0000000E+00  1.0000000E+00  1.0611017E-01  2.9600000E-13  2.9986028E-01  0.0000000E+00
 4.4266000E-01 -4.5000000E+00  9.7534164E+06  1.2496860E+01  5.0024506E-01  4.9975494E-01  0.0000000E+00  0.0000000E+00  0.0000000E+00  0.0000000E+00  1.0000000E+00  1.0611017E-01  2.9600000E-13  2.9986028E-01  0.0000000E+00
 4.4266000E-01 -5.5000000E+00  9.7534164E+06  1.2496860E+01  5.0024506E-01  4.9975494E-01  0.0000000E+00  0.0000000E+00  0.0000000E+00  0.0000000E+00  1.0000000E+00  1.0611017E-01  2.9600000E-13  2.9986028E-01  0.0000000E+00
 4.4266000E-01 -6.5000000E+00  9.7534164E+06  1.2496860E+01  5.0024506E-01  4.9975494E-01  0.0000000E+00  0.0000000E+00  0.0000000E+00  0.0000000E+00  1.0000000E+00  1.0611017E-01  2.9600000E-13  2.9986028E-01  0.0000000E+00
 4.4266000E-01 -7.5000000E+00  9.7534164E+06  1.2496860E+01  5.0024506E-01  4.9975494E-01  0.0000000E+00  0.0000000E+00  0.0000000E+00  0.0000000E+00  1.0000000E+00  1.0611017E-01  2.9600000E-13  2.9986028E-01  0.0000000E+00
 4.4266000E-01 -8.5000000E+00  9.7534196E+06  1.2496861E+01  5.0024504E-01  4.9975496E-01  0.0000000E+00  0.0000000E+00  0.0000000E+00  0.0000000E+00  1.0000000E+00  1.0611018E-01  2.9600000E-13  2.9986029E-01  0.0000000E+00
 4.4266000E-01 -9.5000000E+00  9.7536555E+06  1.2496877E+01  5.0024380E-01  4.9975620E-01  0.0000000E+00  0.0000000E+00  0.0000000E+00  0.0000000E+00  1.0000000E+00  1.0611106E-01  2.9600000E-13  2.9986100E-01  0.0000000E+00
 6.0215998E-01 -5.0000000E-01  9.7909838E+06  1.2499392E+01  5.0004742E-01  4.9995258E-01  0.0000000E+00  0.0000000E+00  0.0000000E+00  0.0000000E+00  1.0000000E+00  1.0625012E-01  2.9600000E-13  2.9997295E-01  0.0000000E+00
 6.0215998E-01 -1.5000000E+00  9.7912301E+06  1.2499409E+01  5.0004613E-01  4.9995387E-01  0.0000000E+00  0.0000000E+00  0.0000000E+00  0.0000000E+00  1.0000000E+00  1.0625103E-01  2.9600000E-13  2.9997369E-01  0.0000000E+00
 6.0215998E-01 -2.5000000E+00  9.7912335E+06  1.2499409E+01  5.0004611E-01  4.9995389E-01  0.0000000E+00  0.0000000E+00  0.0000000E+00  0.0000000E+00  1.0000000E+00  1.0625105E-01  2.9600000E-13  2.9997370E-01  0.0000000E+00
 6.0215998E-01 -3.5000000E+00  9.7912335E+06  1.2499409E+01  5.0004611E-01  4.9995389E-01  0.0000000E+00  0.0000000E+00  0.0000000E+00  0.0000000E+00  1.0000000E+00  1.0625105E-01  2.9600000E-13  2.9997370E-01  0.0000000E+00
 6.0215998E-01 -4.5000000E+00  9.7912335E+06  1.2499409E+01  5.0004611E-01  4.9995389E-01  0.0000000E+00  0.0000000E+00  0.0000000E+00  0.0000000E+00  1.0000000E+00  1.0625105E-01  2.9600000E-13  2.9997370E-01  0.0000000E+00
 6.0215998E-01 -5.5000000E+00  9.7912335E+06  1.2499409E+01  5.0004611E-01  4.9995389E-01  0.0000000E+00  0.0000000E+00  0.0000000E+00  0.0000000E+00  1.0000000E+00  1.0625105E-01  2.9600000E-13  2.9997370E-01  0.0000000E+00
 6.0215998E-01 -6.5000000E+00  9.7912335E+06  1.2499409E+01  5.0004611E-01  4.9995389E-01  0.0000000E+00  0.0000000E+00  0.0000000E+00  0.0000000E+00  1.0000000E+00  1.0625105E-01  2.9600000E-13  2.9997370E-01  0.0000000E+00
 6.0215998E-01 -7.5000000E+00  9.7912336E+06  1.2499409E+01  5.0004611E-01  4.9995389E-01  0.0000000E+00  0.0000000E+00  0.0000000E+00  0.0000000E+00  1.0000000E+00  1.0625105E-01  2.9600000E-13  2.9997370E-01  0.0000000E+00
 6.0215998E-01 -8.5000000E+00  9.7912369E+06  1.2499409E+01  5.0004609E-01  4.9995391E-01  0.0000000E+00  0.0000000E+00  0.0000000E+00  0.0000000E+00  1.0000000E+00  1.0625106E-01  2.9600000E-13  2.9997371E-01  0.0000000E+00
 6.0215998E-01 -9.5000000E+00  9.7914832E+06  1.2499426E+01  5.0004480E-01  4.9995520E-01  0.0000000E+00  0.0000000E+00  0.0000000E+00  0.0000000E+00  1.0000000E+00  1.0625198E-01  2.9600000E-13  2.9997445E-01  0.0000000E+00
 7.9343998E-01 -5.0000000E-01  9.7986351E+06  1.2499908E+01  5.0000718E-01  4.9999282E-01  0.0000000E+00  0.0000000E+00  0.0000000E+00  0.0000000E+00  1.0000000E+00  1.0627863E-01  2.9600000E-13  2.9999591E-01  0.0000000E+00
 7.9343998E-01 -1.5000000E+00  9.7988830E+06  1.2499925E+01  5.0000587E-01  4.9999413E-01  0.0000000E+00  0.0000000E+00  0.0000000E+00  0.0000000E+00  1.0000000E+00  1.0627955E-01  2.9600000E-13  2.9999665E-01  0.0000000E+00
 7.9343998E-01 -2.5000000E+00  9.7988864E+06  1.2499925E+01  5.0000586E-01  4.9999414E-01  0.0000000E+00  0.0000000E+00  0.0000000E+00  0.0000000E+00  1.0000000E+00  1.0627956E-01  2.9600000E-13  2.9999666E-01  0.0000000E+00
 7.9343998E-01 -3.5000000E+00  9.7988865E+06  1.2499925E+01  5.0000586E-01  4.9999414E-01  0.0000000E+00  0.0000000E+00  0.0000000E+00  0.0000000E+00  1.0000000E+00  1.0627957E-01  2.9600000E-13  2.9999666E-01  0.0000000E+00
 7.9343998E-01 -4.5000000E+00  9.7988865E+06  1.2499925E+01  5.0000586E-01  4.9999414E-01  0.0000000E+00  0.0000000E+00  0.0000000E+00  0.0000000E+00  1.0000000E+00  1.0627957E-01  2.9600000E-13  2.9999666E-01  0.0000000E+00
 7.9343998E-01 -5.5000000E+00  9.7988865E+06  1.2499925E+01  5.0000586E-01  4.9999414E-01  0.0000000E+00  0.0000000E+00  0.0000000E+00  0.0000000E+00  1.0000000E+00  1.0627957E-01  2.9600000E-13  2.9999666E-01  0.0000000E+00
 7.9343998E-01 -6.5000000E+00  9.7988865E+06  1.2499925E+01  5.0000586E-01  4.9999414E-01  0.0000000E+00  0.0000000E+00  0.0000000E+00  0.0000000E+00  1.0000000E+00  1.0627957E-01  2.9600000E-13  2.9999666E-01  0.0000000E+00
 7.9343998E-01 -7.5000000E+00  9.7988865E+06  1.2499925E+01  5.0000586E-01  4.9999414E-01  0.0000000E+00  0.0000000E+00  0.0000000E+00  0.0000000E+00  1.0000000E+00  1.0627957E-01  2.9600000E-13  2.9999666E-01  0.0000000E+00
 7.9343998E-01 -8.5000000E+00  9.7988899E+06  1.2499925E+01  5.0000584E-01  4.9999416E-01  0.0000000E+00  0.0000000E+00  0.0000000E+00  0.0000000E+00  1.0000000E+00  1.0627958E-01  2.9600000E-13  2.9999667E-01  0.0000000E+00
 7.9343998E-01 -9.5000000E+00  9.7991379E+06  1.2499942E+01  5.0000453E-01  4.9999547E-01  0.0000000E+00  0.0000000E+00  0.0000000E+00  0.0000000E+00  1.0000000E+00  1.0628050E-01  2.9600000E-13  2.9999741E-01  0.0000000E+00
 1.0229000E+00 -5.0000000E-01  9.7996543E+06  1.2499977E+01  5.0000182E-01  4.9999818E-01  0.0000000E+00  0.0000000E+00  0.0000000E+00  0.0000000E+00  1.0000000E+00  1.0628243E-01  2.9600000E-13  2.9999896E-01  0.0000000E+00
 1.0229000E+00 -1.5000000E+00  9.7999024E+06  1.2499993E+01  5.0000051E-01  4.9999949E-01  0.0000000E+00  0.0000000E+00  0.0000000E+00  0.0000000E+00  1.0000000E+00  1.0628335E-01  2.9600000E-13  2.9999971E-01  0.0000000E+00
 1.0229000E+00 -2.5000000E+00  9.7999058E+06  1.2499994E+01  5.0000050E-01  4.9999950E-01  0.0000000E+00  0.0000000E+00  0.0000000E+00  0.0000000E+00  1.0000000E+00  1.0628336E-01  2.9600000E-13  2.9999972E-01  0.0000000E+00
 1.0229000E+00 -3.5000000E+00  9.7999059E+06  1.2499994E+01  5.0000050E-01  4.9999950E-01  0.0000000E+00  0.0000000E+00  0.0000000E+00  0.0000000E+00  1.0000000E+00  1.0628336E-01  2.9600000E-13  2.9999972E-01  0.0000000E+00
 1.0229000E+00 -4.5000000E+00  9.7999059E+06  1.2499994E+01  5.0000050E-01  4.9999950E-01  0.0000000E+00  0.0000000E+00  0.0000000E+00  0.0000000E+00  1.0000000E+00  1.0628336E-01  2.9600000E-13  2.9999972E-01  0.0000000E+00
 1.0229000E+00 -5.5000000E+00  9.7999059E+06  1.2499994E+01  5.0000050E-01  4.9999950E-01  0.0000000E+00  0.0000000E+00  0.0000000E+00  0.0000000E+00  1.0000000E+00  1.0628336E-01  2.9600000E-13  2.9999972E-01  0.0000000E+00
 1.0229000E+00 -6.5000000E+00  9.7999059E+06  1.2499994E+01  5.0000050E-01  4.9999950E-01  0.0000000E+00  0.0000000E+00  0.0000000E+00  0.0000000E+00  1.0000000E+00  1.0628336E-01  2.9600000E-13  2.9999972E-01  0.0000000E+00
 1.0229000E+00 -7.5000000E+00  9.7999059E+06  1.2499994E+01  5.0000049E-01  4.9999951E-01  0.0000000E+00  0.0000000E+00  0.0000000E+00  0.0000000E+00  1.0000000E+00  1.0628336E-01  2.9600000E-13  2.9999972E-01  0.0000000E+00
 1.0229000E+00 -8.5000000E+00  9.7999093E+06  1.2499994E+01  5.0000048E-01  4.9999952E-01  0.0000000E+00  0.0000000E+00  0.0000000E+00  0.0000000E+00  1.0000000E+00  1.0628338E-01  2.9600000E-13  2.9999973E-01  0.0000000E+00
 1.0229000E+00 -9.5000000E+00  9.8001575E+06  1.2500011E+01  4.9999917E-01  5.0000083E-01  0.0000000E+00  0.0000000E+00  0.0000000E+00  0.0000000E+00  1.0000000E+00  1.0628430E-01  2.9600000E-13  3.0000047E-01  0.0000000E+00
 1.2983000E+00 -5.0000000E-01  9.7997431E+06  1.2499983E+01  5.0000135E-01  4.9999865E-01  0.0000000E+00  0.0000000E+00  0.0000000E+00  0.0000000E+00  1.0000000E+00  1.0628276E-01  2.9600000E-13  2.9999923E-01  0.0000000E+00
 1.2983000E+00 -1.5000000E+00  9.7999913E+06  1.2499999E+01  5.0000005E-01  4.9999995E-01  0.0000000E+00  0.0000000E+00  0.0000000E+00  0.0000000E+00  1.0000000E+00  1.0628368E-01  2.9600000E-13  2.9999997E-01  0.0000000E+00
 1.2983000E+00 -2.5000000E+00  9.7999947E+06  1.2500000E+01  5.0000003E-01  4.9999997E-01  0.0000000E+00  0.0000000E+00  0.0000000E+00  0.0000000E+00  1.0000000E+00  1.0628370E-01  2.9600000E-13  2.9999998E-01  0.0000000E+00
 1.2983000E+00 -3.5000000E+00  9.7999947E+06  1.2500000E+01  5.0000003E-01  4.9999997E-01  0.0000000E+00  0.0000000E+00  0.0000000E+00  0.0000000E+00  1.0000000E+00  1.0628370E-01  2.9600000E-13  2.9999998E-01  0.0000000E+00
 1.2983000E+00 -4.5000000E+00  9.7999947E+06  1.2500000E+01  5.0000003E-01  4.9999997E-01  0.0000000E+00  0.0000000E+00  0.0000000E+00  0.0000000E+00  1.0000000E+00  1.0628370E-01  2.9600000E-13  2.9999998E-01  0.0000000E+00
 1.2983000E+00 -5.5000000E+00  9.7999947E+06  1.2500000E+01  5.0000003E-01  4.9999997E-01  0.0000000E+00  0.0000000E+00  0.0000000E+00  0.0000000E+00  1.0000000E+00  1.0628370E-01  2.9600000E-13  2.9999998E-01  0.0000000E+00
 1.2983000E+00 -6.5000000E+00  9.7999947E+06  1.2500000E+01  5.0000003E-01  4.9999997E-01  0.0000000E+00  0.0000000E+00  0.0000000E+00  0.0000000E+00  1.0000000E+00  1.0628370E-01  2.9600000E-13  2.9999998E-01  0.0000000E+00
 1.2983000E+00 -7.5000000E+00  9.7999948E+06  1.2500000E+01  5.0000003E-01  4.9999997E-01  0.0000000E+00  0.0000000E+00  0.0000000E+00  0.0000000E+00  1.0000000E+00  1.0628370E-01  2.9600000E-13  2.9999998E-01  0.0000000E+00
 1.2983000E+00 -8.5000000E+00  9.7999982E+06  1.2500000E+01  5.0000001E-01  4.9999999E-01  0.0000000E+00  0.0000000E+00  0.0000000E+00  0.0000000E+00  1.0000000E+00  1.0628371E-01  2.9600000E-13  2.9999999E-01  0.0000000E+00
 1.2983000E+00 -9.5000000E+00  9.8002463E+06  1.2500017E+01  4.9999870E-01  5.0000130E-01  0.0000000E+00  0.0000000E+00  0.0000000E+00  0.0000000E+00  1.0000000E+00  1.0628463E-01  2.9600000E-13  3.0000074E-01  0.0000000E+00
 1.6289001E+00 -5.0000000E-01  9.7997482E+06  1.2499983E+01  5.0000132E-01  4.9999868E-01  0.0000000E+00  0.0000000E+00  0.0000000E+00  0.0000000E+00  1.0000000E+00  1.0628278E-01  2.9600000E-13  2.9999924E-01  0.0000000E+00
 1.6289001E+00 -1.5000000E+00  9.7999963E+06  1.2500000E+01  5.0000002E-01  4.9999998E-01  0.0000000E+00  0.0000000E+00  0.0000000E+00  0.0000000E+00  1.0000000E+00  1.0628370E-01  2.9600000E-13  2.9999999E-01  0.0000000E+00
 1.6289001E+00 -2.5000000E+00  9.7999998E+06  1.2500000E+01  5.0000000E-01  5.0000000E-01  0.0000000E+00  0.0000000E+00  0.0000000E+00  0.0000000E+00  1.0000000E+00  1.0628371E-01  2.9600000E-13  3.0000000E-01  0.0000000E+00
 1.6289001E+00 -3.5000000E+00  9.7999998E+06  1.2500000E+01  5.0000000E-01  5.0000000E-01  0.0000000E+00  0.0000000E+00  0.0000000E+00  0.0000000E+00  1.0000000E+00  1.0628371E-01  2.9600000E-13  3.0000000E-01  0.0000000E+00
 1.6289001E+00 -4.5000000E+00  9.7999998E+06  1.2500000E+01  5.0000000E-01  5.0000000E-01  0.0000000E+00  0.0000000E+00  0.0000000E+00  0.0000000E+00  1.0000000E+00  1.0628371E-01  2.9600000E-13  3.0000000E-01  0.0000000E+00
 1.6289001E+00 -5.5000000E+00  9.7999998E+06  1.2500000E+01  5.0000000E-01  5.0000000E-01  0.0000000E+00  0.0000000E+00  0.0000000E+00  0.0000000E+00  1.0000000E+00  1.0628371E-01  2.9600000E-13  3.0000000E-01  0.0000000E+00
 1.6289001E+00 -6.5000000E+00  9.7999998E+06  1.2500000E+01  5.0000000E-01  5.0000000E-01  0.0000000E+00  0.0000000E+00  0.0000000E+00  0.0000000E+00  1.0000000E+00  1.0628371E-01  2.9600000E-13  3.0000000E-01  0.0000000E+00
 1.6289001E+00 -7.5000000E+00  9.7999998E+06  1.2500000E+01  5.0000000E-01  5.0000000E-01  0.0000000E+00  0.0000000E+00  0.0000000E+00  0.0000000E+00  1.0000000E+00  1.0628371E-01  2.9600000E-13  3.0000000E-01  0.0000000E+00
 1.6289001E+00 -8.5000000E+00  9.8000033E+06  1.2500000E+01  4.9999998E-01  5.0000002E-01  0.0000000E+00  0.0000000E+00  0.0000000E+00  0.0000000E+00  1.0000000E+00  1.0628373E-01  2.9600000E-13  3.0000001E-01  0.0000000E+00
 1.6289001E+00 -9.5000000E+00  9.8002514E+06  1.2500017E+01  4.9999868E-01  5.0000132E-01  0.0000000E+00  0.0000000E+00  0.0000000E+00  0.0000000E+00  1.0000000E+00  1.0628465E-01  2.9600000E-13  3.0000075E-01  0.0000000E+00
 2.0256000E+00 -5.0000000E-01  9.7997484E+06  1.2499983E+01  5.0000132E-01  4.9999868E-01  0.0000000E+00  0.0000000E+00  0.0000000E+00  0.0000000E+00  1.0000000E+00  1.0628278E-01  2.9600000E-13  2.9999925E-01  0.0000000E+00
 2.0256000E+00 -1.5000000E+00  9.7999965E+06  1.2500000E+01  5.0000002E-01  4.9999998E-01  0.0000000E+00  0.0000000E+00  0.0000000E+00  0.0000000E+00  1.0000000E+00  1.0628370E-01  2.9600000E-13  2.9999999E-01  0.0000000E+00
 2.0256000E+00 -2.5000000E+00  9.8000000E+06  1.2500000E+01  5.0000000E-01  5.0000000E-01  0.0000000E+00  0.0000000E+00  0.0000000E+00  0.0000000E+00  1.0000000E+00  1.0628371E-01  2.9600000E-13  3.0000000E-01  0.0000000E+00
 2.0256000E+00 -3.5000000E+00  9.8000000E+06  1.2500000E+01  5.0000000E-01  5.0000000E-01  0.0000000E+00  0.0000000E+00  0.0000000E+00  0.0000000E+00  1.0000000E+00  1.0628371E-01  2.9600000E-13  3.0000000E-01  0.0000000E+00
 2.0256000E+00 -4.5000000E+00  9.8000000E+06  1.2500000E+01  5.0000000E-01  5.0000000E-01  0.0000000E+00  0.0000000E+00  0.0000000E+00  0.0000000E+00  1.0000000E+00  1.0628371E-01  2.9600000E-13  3.0000000E-01  0.0000000E+00
 2.0256000E+00 -5.5000000E+00  9.8000000E+06  1.2500000E+01  5.0000000E-01  5.0000000E-01  0.0000000E+00  0.0000000E+00  0.0000000E+00  0.0000000E+00  1.0000000E+00  1.0628371E-01  2.9600000E-13  3.0000000E-01  0.0000000E+00
 2.0256000E+00 -6.5000000E+00  9.8000000E+06  1.2500000E+01  5.0000000E-01  5.0000000E-01  0.0000000E+00  0.0000000E+00  0.0000000E+00  0.0000000E+00  1.0000000E+00  1.0628371E-01  2.9600000E-13  3.0000000E-01  0.0000000E+00
 2.0256000E+00 -7.5000000E+00  9.8000000E+06  1.2500000E+01  5.0000000E-01  5.0000000E-01  0.0000000E+00  0.0000000E+00  0.0000000E+00  0.0000000E+00  1.0000000E+00  1.0628371E-01  2.9600000E-13  3.0000000E-01  0.0000000E+00
 2.0256000E+00 -8.5000000E+00  9.8000035E+06  1.2500000E+01  4.9999998E-01  5.0000002E-01  0.0000000E+00  0.0000000E+00  0.0000000E+00  0.0000000E+00  1.0000000E+00  1.0628373E-01  2.9600000E-13  3.0000001E-01  0.0000000E+00
 2.0256000E+00 -9.5000000E+00  9.8002516E+06  1.2500017E+01  4.9999868E-01  5.0000132E-01  0.0000000E+00  0.0000000E+00  0.0000000E+00  0.0000000E+00  1.0000000E+00  1.0628465E-01  2.9600000E-13  3.0000075E-01  0.0000000E+00
 2.5016999E+00 -5.0000000E-01  9.7997484E+06  1.2499983E+01  5.0000132E-01  4.9999868E-01  0.0000000E+00  0.0000000E+00  0.0000000E+00  0.0000000E+00  1.0000000E+00  1.0628278E-01  2.9600000E-13  2.9999925E-01  0.0000000E+00
 2.5016999E+00 -1.5000000E+00  9.7999965E+06  1.2500000E+01  5.0000002E-01  4.9999998E-01  0.0000000E+00  0.0000000E+00  0.0000000E+00  0.0000000E+00  1.0000000E+00  1.0628370E-01  2.9600000E-13  2.9999999E-01  0.0000000E+00
 2.5016999E+00 -2.5000000E+00  9.8000000E+06  1.2500000E+01  5.0000000E-01  5.0000000E-01  0.0000000E+00  0.0000000E+00  0.0000000E+00  0.0000000E+00  1.0000000E+00  1.0628371E-01  2.9600000E-13  3.0000000E-01  0.0000000E+00
 2.5016999E+00 -3.5000000E+00  9.8000000E+06  1.2500000E+01  5.0000000E-01  5.0000000E-01  0.0000000E+00  0.0000000E+00  0.0000000E+00  0.0000000E+00  1.0000000E+00  1.0628371E-01  2.9600000E-13  3.0000000E-01  0.0000000E+00
 2.5016999E+00 -4.5000000E+00  9.8000000E+06  1.2500000E+01  5.0000000E-01  5.0000000E-01  0.0000000E+00  0.0000000E+00  0.0000000E+00  0.0000000E+00  1.0000000E+00  1.0628371E-01  2.9600000E-13  3.0000000E-01  0.0000000E+00
 2.5016999E+00 -5.5000000E+00  9.8000000E+06  1.2500000E+01  5.0000000E-01  5.0000000E-01  0.0000000E+00  0.0000000E+00  0.0000000E+00  0.0000000E+00  1.0000000E+00  1.0628371E-01  2.9600000E-13  3.0000000E-01  0.0000000E+00
 2.5016999E+00 -6.5000000E+00  9.8000000E+06  1.2500000E+01  5.0000000E-01  5.0000000E-01  0.0000000E+00  0.0000000E+00  0.0000000E+00  0.0000000E+00  1.0000000E+00  1.0628371E-01  2.9600000E-13  3.0000000E-01  0.0000000E+00
 2.5016999E+00 -7.5000000E+00  9.8000000E+06  1.2500000E+01  5.0000000E-01  5.0000000E-01  0.0000000E+00  0.0000000E+00  0.0000000E+00  0.0000000E+00  1.0000000E+00  1.0628371E-01  2.9600000E-13  3.0000000E-01  0.0000000E+00
 2.5016999E+00 -8.5000000E+00  9.8000035E+06  1.2500000E+01  4.9999998E-01  5.0000002E-01  0.0000000E+00  0.0000000E+00  0.0000000E+00  0.0000000E+00  1.0000000E+00  1.0628373E-01  2.9600000E-13  3.0000001E-01  0.0000000E+00
 2.5016999E+00 -9.5000000E+00  9.8002516E+06  1.2500017E+01  4.9999868E-01  5.0000132E-01  0.0000000E+00  0.0000000E+00  0.0000000E+00  0.0000000E+00  1.0000000E+00  1.0628465E-01  2.9600000E-13  3.0000075E-01  0.0000000E+00
 3.0732000E+00 -5.0000000E-01  9.7997484E+06  1.2499983E+01  5.0000132E-01  4.9999868E-01  0.0000000E+00  0.0000000E+00  0.0000000E+00  0.0000000E+00  1.0000000E+00  1.0628278E-01  2.9600000E-13  2.9999925E-01  0.0000000E+00
 3.0732000E+00 -1.5000000E+00  9.7999965E+06  1.2500000E+01  5.0000002E-01  4.9999998E-01  0.0000000E+00  0.0000000E+00  0.0000000E+00  0.0000000E+00  1.0000000E+00  1.0628370E-01  2.9600000E-13  2.9999999E-01  0.0000000E+00