<?xml version="1.0"?>
<VTKFile type="UnstructuredGrid" version="1.0" byte_order="LittleEndian">
  <UnstructuredGrid>
    <Piece NumberOfPoints="+330" NumberOfCells="+576">
      <Points>
        <DataArray type="Float64" NumberOfComponents="3" Name="Points" format="ascii">
           0.000000000000000E+000 -0.500000000000000E+000   0.000000000000000E+000 0.000000000000000E+000 -0.150000000000000E+001   0.000000000000000E+000 0.000000000000000E+000 -0.250000000000000E+001   0.000000000000000E+000 0.000000000000000E+000 -0.350000000000000E+001   0.000000000000000E+000 0.000000000000000E+000 -0.450000000000000E+001   0.000000000000000E+000 0.000000000000000E+000 -0.550000000000000E+001   0.000000000000000E+000 0.000000000000000E+000 -0.650000000000000E+001   0.000000000000000E+000 0.000000000000000E+000 -0.750000000000000E+001   0.000000000000000E+000 0.000000000000000E+000 -0.850000000000000E+001   0.000000000000000E+000 0.000000000000000E+000 -0.950000000000000E+001   0.000000000000000E+000+0.591610000000000E-001 -0.500000000000000E+000   0.000000000000000E+000+0.591610000000000E-001 -0.150000000000000E+001   0.000000000000000E+000+0.591610000000000E-001 -0.250000000000000E+001   0.000000000000000E+000+0.591610000000000E-001 -0.350000000000000E+001   0.000000000000000E+000+0.591610000000000E-001 -0.450000000000000E+001   0.000000000000000E+000+0.591610000000000E-001 -0.550000000000000E+001   0.000000000000000E+000+0.591610000000000E-001 -0.650000000000000E+001   0.000000000000000E+000+0.591610000000000E-001 -0.750000000000000E+001   0.000000000000000E+000+0.591610000000000E-001 -0.850000000000000E+001   0.000000000000000E+000+0.591610000000000E-001 -0.950000000000000E+001   0.000000000000000E+000+0.103830000000000E+000 -0.500000000000000E+000   0.000000000000000E+000+0.103830000000000E+000 -0.150000000000000E+001   0.000000000000000E+000+0.103830000000000E+000 -0.250000000000000E+001   0.000000000000000E+000+0.103830000000000E+000 -0.350000000000000E+001   0.000000000000000E+000+0.103830000000000E+000 -0.450000000000000E+001   0.000000000000000E+000+0.103830000000000E+000 -0.550000000000000E+001   0.000000000000000E+000+0.103830000000000E+000 -0.650000000000000E+001   0.000000000000000E+000+0.103830000000000E+000 -0.750000000000000E+001   0.000000000000000E+000+0.103830000000000E+000 -0.850000000000000E+001   0.000000000000000E+000+0.103830000000000E+000 -0.950000000000000E+001   0.000000000000000E+000+0.198130000000000E+000 -0.500000000000000E+000   0.000000000000000E+000+0.198130000000000E+000 -0.150000000000000E+001   0.000000000000000E+000+0.198130000000000E+000 -0.250000000000000E+001   0.000000000000000E+000+0.198130000000000E+000 -0.350000000000000E+001   0.000000000000000E+000+0.198130000000000E+000 -0.450000000000000E+001   0.000000000000000E+000+0.198130000000000E+000 -0.550000000000000E+001   0.000000000000000E+000+0.198130000000000E+000 -0.650000000000000E+001   0.000000000000000E+000+0.198130000000000E+000 -0.750000000000000E+001   0.000000000000000E+000+0.198130000000000E+000 -0.850000000000000E+001   0.000000000000000E+000+0.198130000000000E+000 -0.950000000000000E+001   0.000000000000000E+000+0.309540000000000E+000 -0.500000000000000E+000   0.000000000000000E+000+0.309540000000000E+000 -0.150000000000000E+001   0.000000000000000E+000+0.309540000000000E+000 -0.250000000000000E+001   0.000000000000000E+000+0.309540000000000E+000 -0.350000000000000E+001   0.000000000000000E+000+0.309540000000000E+000 -0.450000000000000E+001   0.000000000000000E+000+0.309540000000000E+000 -0.550000000000000E+001   0.000000000000000E+000+0.309540000000000E+000 -0.650000000000000E+001   0.000000000000000E+000+0.309540000000000E+000 -0.750000000000000E+001   0.000000000000000E+000+0.309540000000000E+000 -0.850000000000000E+001   0.000000000000000E+000+0.309540000000000E+000 -0.950000000000000E+001   0.000000000000000E+000+0.442660000000000E+000 -0.500000000000000E+000   0.000000000000000E+000+0.442660000000000E+000 -0.150000000000000E+001   0.000000000000000E+000+0.442660000000000E+000 -0.250000000000000E+001   0.000000000000000E+000+0.442660000000000E+000 -0.350000000000000E+001   0.000000000000000E+000+0.442660000000000E+000 -0.450000000000000E+001   0.000000000000000E+000+0.442660000000000E+000 -0.550000000000000E+001   0.000000000000000E+000+0.442660000000000E+000 -0.650000000000000E+001   0.000000000000000E+000+0.442660000000000E+000 -0.750000000000000E+001   0.000000000000000E+000+0.442660000000000E+000 -0.850000000000000E+001   0.000000000000000E+000+0.442660000000000E+000 -0.950000000000000E+001   0.000000000000000E+000+0.602159980000000E+000 -0.500000000000000E+000   0.000000000000000E+000+0.602159980000000E+000 -0.150000000000000E+001   0.000000000000000E+000+0.602159980000000E+000 -0.250000000000000E+001   0.000000000000000E+000+0.602159980000000E+000 -0.350000000000000E+001   0.000000000000000E+000+0.602159980000000E+000 -0.450000000000000E+001   0.000000000000000E+000+0.602159980000000E+000 -0.550000000000000E+001   0.000000000000000E+000+0.602159980000000E+000 -0.650000000000000E+001   0.000000000000000E+000+0.602159980000000E+000 -0.750000000000000E+001   0.000000000000000E+000+0.602159980000000E+000 -0.850000000000000E+001   0.000000000000000E+000+0.602159980000000E+000 -0.950000000000000E+001   0.000000000000000E+000+0.793439980000000E+000 -0.500000000000000E+000   0.000000000000000E+000+0.793439980000000E+000 -0.150000000000000E+001   0.000000000000000E+000+0.793439980000000E+000 -0.250000000000000E+001   0.000000000000000E+000+0.793439980000000E+000 -0.350000000000000E+001   0.000000000000000E+000+0.793439980000000E+000 -0.450000000000000E+001   0.000000000000000E+000+0.793439980000000E+000 -0.550000000000000E+001   0.000000000000000E+000+0.793439980000000E+000 -0.650000000000000E+001   0.000000000000000E+000+0.793439980000000E+000 -0.750000000000000E+001   0.000000000000000E+000+0.793439980000000E+000 -0.850000000000000E+001   0.000000000000000E+000+0.793439980000000E+000 -0.950000000000000E+001   0.000000000000000E+000+0.102290000000000E+001 -0.500000000000000E+000   0.000000000000000E+000+0.102290000000000E+001 -0.150000000000000E+001   0.000000000000000E+000+0.102290000000000E+001 -0.250000000000000E+001   0.000000000000000E+000+0.102290000000000E+001 -0.350000000000000E+001   0.000000000000000E+000+0.102290000000000E+001 -0.450000000000000E+001   0.000000000000000E+000+0.102290000000000E+001 -0.550000000000000E+001   0.000000000000000E+000+0.102290000000000E+001 -0.650000000000000E+001   0.000000000000000E+000+0.102290000000000E+001 -0.750000000000000E+001   0.000000000000000E+000+0.102290000000000E+001 -0.850000000000000E+001   0.000000000000000E+000+0.102290000000000E+001 -0.950000000000000E+001   0.000000000000000E+000+0.129830000000000E+001 -0.500000000000000E+000   0.000000000000000E+000+0.129830000000000E+001 -0.150000000000000E+001   0.000000000000000E+000+0.129830000000000E+001 -0.250000000000000E+001   0.000000000000000E+000+0.129830000000000E+001 -0.350000000000000E+001   0.000000000000000E+000+0.129830000000000E+001 -0.450000000000000E+001   0.000000000000000E+000+0.129830000000000E+001 -0.550000000000000E+001   0.000000000000000E+000+0.129830000000000E+001 -0.650000000000000E+001   0.000000000000000E+000+0.129830000000000E+001 -0.750000000000000E+001   0.000000000000000E+000+0.129830000000000E+001 -0.850000000000000E+001   0.000000000000000E+000+0.129830000000000E+001 -0.950000000000000E+001   0.000000000000000E+000+0.162890010000000E+001 -0.500000000000000E+000   0.000000000000000E+000+0.162890010000000E+001 -0.150000000000000E+001   0.000000000000000E+000+0.162890010000000E+001 -0.250000000000000E+001   0.000000000000000E+000+0.162890010000000E+001 -0.350000000000000E+001   0.000000000000000E+000+0.162890010000000E+001 -0.450000000000000E+001   0.000000000000000E+000+0.162890010000000E+001 -0.550000000000000E+001   0.000000000000000E+000+0.162890010000000E+001 -0.650000000000000E+001   0.000000000000000E+000+0.162890010000000E+001 -0.750000000000000E+001   0.000000000000000E+000+0.162890010000000E+001 -0.850000000000000E+001   0.000000000000000E+000+0.162890010000000E+001 -0.950000000000000E+001   0.000000000000000E+000+0.202560000000000E+001 -0.500000000000000E+000   0.000000000000000E+000+0.202560000000000E+001 -0.150000000000000E+001   0.000000000000000E+000+0.202560000000000E+001 -0.250000000000000E+001   0.000000000000000E+000+0.202560000000000E+001 -0.350000000000000E+001   0.000000000000000E+000+0.202560000000000E+001 -0.450000000000000E+001   0.000000000000000E+000+0.202560000000000E+001 -0.550000000000000E+001   0.000000000000000E+000+0.202560000000000E+001 -0.650000000000000E+001   0.000000000000000E+000+0.202560000000000E+001 -0.750000000000000E+001   0.000000000000000E+000+0.202560000000000E+001 -0.850000000000000E+001   0.000000000000000E+000+0.202560000000000E+001 -0.950000000000000E+001   0.000000000000000E+000+0.250169990000000E+001 -0.500000000000000E+000   0.000000000000000E+000+0.250169990000000E+001 -0.150000000000000E+001   0.000000000000000E+000+0.250169990000000E+001 -0.250000000000000E+001   0.000000000000000E+000+0.250169990000000E+001 -0.350000000000000E+001   0.000000000000000E+000+0.250169990000000E+001 -0.450000000000000E+001   0.000000000000000E+000+0.250169990000000E+001 -0.550000000000000E+001   0.000000000000000E+000+0.250169990000000E+001 -0.650000000000000E+001   0.000000000000000E+000+0.250169990000000E+001 -0.750000000000000E+001   0.000000000000000E+000+0.250169990000000E+001 -0.850000000000000E+001   0.000000000000000E+000+0.250169990000000E+001 -0.950000000000000E+001   0.000000000000000E+000+0.307320000000000E+001 -0.500000000000000E+000   0.000000000000000E+000+0.307320000000000E+001 -0.150000000000000E+001   0.000000000000000E+000+0.307320000000000E+001 -0.250000000000000E+001   0.000000000000000E+000+0.307320000000000E+001 -0.350000000000000E+001   0.000000000000000E+000+0.307320000000000E+001 -0.450000000000000E+001   0.000000000000000E
[...]
      <PointData>
        <DataArray type="Float64" NumberOfComponents="1" Name="P" format="ascii">
          +0.374390080000000E+003+0.374509810000000E+003+0.374510070000000E+003+0.374510970000000E+003+0.374510580000000E+003+0.374509160000000E+003+0.374508910000000E+003+0.374510630000000E+003+0.374510720000000E+003+0.374631590000000E+003+0.262681240000000E+007+0.262681240000000E+007+0.262681240000000E+007+0.262681240000000E+007+0.262681240000000E+007+0.262681240000000E+007+0.262681240000000E+007+0.262681240000000E+007+0.262681240000000E+007+0.262681240000000E+007+0.680298990000000E+007+0.680309840000000E+007+0.680310000000000E+007+0.680309970000000E+007+0.680310000000000E+007+0.680310050000000E+007+0.680310060000000E+007+0.680309980000000E+007+0.680310160000000E+007+0.680320960000000E+007+0.870689780000000E+007+0.870703870000000E+007+0.870704110000000E+007+0.870704090000000E+007+0.870704110000000E+007+0.870704130000000E+007+0.870704140000000E+007+0.870704100000000E+007+0.870704350000000E+007+0.870718410000000E+007+0.936706090000000E+007+0.936727390000000E+007+0.936727850000000E+007+0.936727860000000E+007+0.936727860000000E+007+0.936727870000000E+007+0.936727870000000E+007+0.936727870000000E+007+0.936728330000000E+007+0.936749630000000E+007+0.960295860000000E+007+0.960338190000000E+007+0.960339380000000E+007+0.960339410000000E+007+0.960339410000000E+007+0.960339410000000E+007+0.960339410000000E+007+0.960339430000000E+007+0.960340620000000E+007+0.960382960000000E+007+0.972847540000000E+007+0.972900030000000E+007+0.972901630000000E+007+0.972901660000000E+007+0.972901670000000E+007+0.972901670000000E+007+0.972901670000000E+007+0.972901700000000E+007+0.972903300000000E+007+0.972955790000000E+007+0.978043820000000E+007+0.978099840000000E+007+0.978101600000000E+007+0.978101640000000E+007+0.978101640000000E+007+0.978101640000000E+007+0.978101640000000E+007+0.978101680000000E+007+0.978103430000000E+007+0.978159450000000E+007+0.979585000000000E+007+0.979641870000000E+007+0.979643670000000E+007+0.979643710000000E+007+0.979643710000000E+007+0.979643710000000E+007+0.979643710000000E+007+0.979643760000000E+007+0.979645560000000E+007+0.979702430000000E+007+0.979895760000000E+007+0.979952780000000E+007+0.979954590000000E+007+0.979954630000000E+007+0.979954630000000E+007+0.979954630000000E+007+0.979954630000000E+007+0.979954670000000E+007+0.979956490000000E+007+0.980013500000000E+007+0.979937260000000E+007+0.979994300000000E+007+0.979996110000000E+007+0.979996150000000E+007+0.979996150000000E+007+0.979996150000000E+007+0.979996150000000E+007+0.979996190000000E+007+0.979998000000000E+007+0.980055040000000E+007+0.979940890000000E+007+0.979997930000000E+007+0.979999740000000E+007+0.979999780000000E+007+0.979999780000000E+007+0.979999780000000E+007+0.979999780000000E+007+0.979999830000000E+007+0.980001640000000E+007+0.980058670000000E+007+0.979941100000000E+007+0.979998140000000E+007+0.979999950000000E+007+0.979999990000000E+007+0.979999990000000E+007+0.979999990000000E+007+0.979999990000000E+007+0.980000030000000E+007+0.980001840000000E+007+0.980058880000000E+007+0.979941110000000E+007+0.979998150000000E+007+0.979999960000000E+007+0.980000000000000E+007+0.980000000000000E+007+0.980000000000000E+007+0.980000000000000E+007+0.980000040000000E+007+0.980001850000000E+007+0.980058890000000E+007+0.979941110000000E+007+0.979998150000000E+007+0.979999960000000E+007+0.980000000000000E+007+0.980000000000000E+007+0.980000000000000E+007+0.980000000000000E+007+0.980000040000000E+007+0.980001850000000E+007+0.980058890000000E+007+0.979941110000000E+007+0.979998150000000E+007+0.979999960000000E+007+0.980000000000000E+007+0.980000000000000E+007+0.980000000000000E+007+0.980000000000000E+007+0.980000040000000E+007+0.980001850000000E+007+0.980058890000000E+007+0.979941110000000E+007+0.979998150000000E+007+0.979999960000000E+007+0.980000000000000E+007+0.980000000000000E+007+0.980000000000000E+007+0.980000000000000E+007+0.980000040000000E+007+0.980001850000000E+007+0.980058890000000E+007+0.979941110000000E+007+0.979998150000000E+007+0.979999960000000E+007+0.980000000000000E+007+0.980000000000000E+007+0.980000000000000E+007+0.980000000000000E+007+0.980000040000000E+007+0.980001850000000E+007+0.980058890000000E+007+0.979941110000000E+007+0.979998150000000E+007+0.979999960000000E+007+0.980000000000000E+007+0.980000000000000E+007+0.980000000000000E+007+0.980000000000000E+007+0.980000040000000E+007+0.980001850000000E+007+0.980058890000000E+007+0.979941110000000E+007+0.979998150000000E+007+0.979999960000000E+007+0.980000000000000E+007+0.980000000000000E+007+0.980000000000000E+007+0.980000000000000E+007+0.980000040000000E+007+0.980001850000000E+007+0.980058890000000E+007+0.979941110000000E+007+0.979998150000000E+007+0.979999960000000E+007+0.980000000000000E+007+0.980000000000000E+007+0.980000000000000E+007+0.980000000000000E+007+0.980000040000000E+007+0.980001850000000E+007+0.980058890000000E+007+0.979941110000000E+007+0.979998150000000E+007+0.979999960000000E+007+0.980000000000000E+007+0.980000000000000E+007+0.980000000000000E+007+0.980000000000000E+007+0.980000040000000E+007+0.980001850000000E+007+0.980058890000000E+007+0.979941110000000E+007+0.979998150000000E+007+0.979999960000000E+007+0.980000000000000E+007+0.980000000000000E+007+0.980000000000000E+007+0.980000000000000E+007+0.980000040000000E+007+0.980001850000000E+007+0.980058890000000E+007+0.979941110000000E+007+0.979998150000000E+007+0.979999960000000E+007+0.980000000000000E+007+0.980000000000000E+007+0.980000000000000E+007+0.980000000000000E+007+0.980000040000000E+007+0.980001850000000E+007+0.980058890000000E+007+0.979941110000000E+007+0.979998150000000E+007+0.979999960000000E+007+0.980000000000000E+007+0.980000000000000E+007+0.980000000000000E+007+0.980000000000000E+007+0.980000040000000E+007+0.980001850000000E+007+0.980058890000000E+007+0.979941110000000E+007+0.979998150000000E+007+0.979999960000000E+007+0.980000000000000E+007+0.980000000000000E+007+0.980000000000000E+007+0.980000000000000E+007+0.980000040000000E+007+0.980001850000000E+007+0.980058890000000E+007+0.979941110000000E+007+0.979998150000000E+007+0.979999960000000E+007+0.980000000000000E+007+0.980000000000000E+007+0.980000000000000E+007+0.980000000000000E+007+0.980000040000000E+007+0.980001850000000E+007+0.980058890000000E+007+0.979941110000000E+007+0.979998150000000E+007+0.979999960000000E+007+0.980000000000000E+007+0.980000000000000E+007+0.980000000000000E+007+0.980000000000000E+007+0.980000040000000E+007+0.980001850000000E+007+0.980058890000000E+007+0.979941110000000E+007+0.979998150000000E+007+0.979999960000000E+007+0.980000000000000E+007+0.980000000000000E+007+0.980000000000000E+007+0.980000000000000E+007+0.980000040000000E+007+0.980001850000000E+007+0.980058890000000E+007+0.979941110000000E+007+0.979998150000000E+007+0.979999960000000E+007+0.980000000000000E+007+0.980000000000000E+007+0.980000000000000E+007+0.980000000000000E+007+0.980000040000000E+007+0.980001850000000E+007+0.980058890000000E+007+0.979941110000000E+007+0.979998150000000E+007+0.979999960000000E+007+0.980000000000000E+007+0.980000000000000E+007+0.980000000000000E+007+0.980000000000000E+007+0.980000040000000E+007+0.980001850000000E+007+0.980058890000000E+007+0.979941110000000E+007+0.979998150000000E+007+0.979999960000000E+007+0.980000000000000E+007+0.980000000000000E+007+0.980000000000000E+007+0.980000000000000E+007+0.980000040000000E+007+0.980001850000000E+007+0.980058890000000E+007+0.979941110000000E+007+0.979998150000000E+007+0.979999960000000E+007+0.980000000000000E+007+0.980000000000000E+007+0.980000000000000E+007+0.980000000000000E+007+0.980000040000000E+007+0.980001850000000E+007+0.980058890000000E+007
        </DataArray>
        <DataArray type="Float64" NumberOfComponents="1" Name="T" format="ascii">
          -0.653428210000000E+001-0.653008940000000E+001-0.653007870000000E+001-0.653004850000000E+001-0.653006160000000E+001-0.653010900000000E+001-0.653011700000000E+001-0.653005990000000E+001-0.653005480000000E+001-0.652582580000000E+001+0.100000000000000E-001+0.100000000000000E-001+0.100000000000000E-001+0.100000000000000E-001+0.100000000000000E-001+0.100000000000000E-001+0.100000000000000E-001+0.100000000000000E-001+0.100000000000000E-001+0.100000000000000E-001+0.947461190000000E+001+0.947476180000000E+001+0.947476400000000E+001+0.947476360000000E+001+0.947476400000000E+001+0.947476470000000E+001+0.947476480000000E+001+0.947476370000000E+001+0.947476620000000E+001+0.947491530000000E+001+0.117290610000000E+002+0.117292050000000E+002+0.117292080000000E+002+0.117292070000000E+002+0.117292080000000E+002+0.117292080000000E+002+0.117292080000000E+002+0.117292070000000E+002+0.117292100000000E+002+0.117293530000000E+002+0.123732460000000E+002+0.123734450000000E+002+0.123734490000000E+002+0.123734490000000E+002+0.123734490000000E+002+0.123734500000000E+002+0.123734500000000E+002+0.123734500000000E+002+0.123734540000000E+002+0.123736530000000E+002+0.124867530000000E+002+0.124867810000000E+002+0.124867820000000E+002+0.124867820000000E+002+0.124867820000000E+002+0.124867820000000E+002+0.124867820000000E+002+0.124867820000000E+002+0.124867830000000E+002+0.124868120000000E+002+0.124951810000000E+002+0.124952170000000E+002+0.124952180000000E+002+0.124952180000000E+002+0.124952180000000E+002+0.124952180000000E+002+0.124952180000000E+002+0.124952180000000E+002+0.124952190000000E+002+0.124952540000000E+002+0.124986810000000E+002+0.124987190000000E+002+0.124987200000000E+002+0.124987200000000E+002+0.124987200000000E+002+0.124987200000000E+002+0.124987200000000E+002+0.124987200000000E+002+0.124987210000000E+002+0.124987590000000E+002+0.124997200000000E+002+0.124997590000000E+002+0.124997600000000E+002+0.124997600000000E+002+0.124997600000000E+002+0.124997600000000E+002+0.124997600000000E+002+0.124997600000000E+002+0.124997610000000E+002+0.124997990000000E+002+0.124999300000000E+002+0.124999680000000E+002+0.124999690000000E+002+0.124999690000000E+002+0.124999690000000E+002+0.124999690000000E+002+0.124999690000000E+002+0.124999690000000E+002+0.124999710000000E+002+0.125000090000000E+002+0.124999580000000E+002+0.124999960000000E+002+0.124999970000000E+002+0.124999970000000E+002+0.124999970000000E+002+0.124999970000000E+002+0.124999970000000E+002+0.124999970000000E+002+0.124999990000000E+002+0.125000370000000E+002+0.124999600000000E+002+0.124999990000000E+002+0.125000000000000E+002+0.125000000000000E+002+0.125000000000000E+002+0.125000000000000E+002+0.125000000000000E+002+0.125000000000000E+002+0.125000010000000E+002+0.125000400000000E+002+0.124999600000000E+002+0.124999990000000E+002+0.125000000000000E+002+0.125000000000000E+002+0.125000000000000E+002+0.125000000000000E+002+0.125000000000000E+002+0.125000000000000E+002+0.125000010000000E+002+0.125000400000000E+002+0.124999600000000E+002+0.124999990000000E+002+0.125000000000000E+002+0.125000000000000E+002+0.125000000000000E+002+0.125000000000000E+002+0.125000000000000E+002+0.125000000000000E+002+0.125000010000000E+002+0.125000400000000E+002+0.124999600000000E+002+0.124999990000000E+002+0.125000000000000E+002+0.125000000000000E+002+0.125000000000000E+002+0.125000000000000E+002+0.125000000000000E+002+0.125000000000000E+002+0.125000010000000E+002+0.125000400000000E+002+0.124999600000000E+002+0.124999990000000E+002+0.125000000000000E+002+0.125000000000000E+002+0.125000000000000E+002+0.125000000000000E+002+0.125000000000000E+002+0.125000000000000E+002+0.125000010000000E+002+0.125000400000000E+002+0.124999600000000E+002+0.124999990000000E+002+0.125000000000000E+002+0.125000000000000E+002+0.125000000000000E+002+0.125000000000000E+002+0.125000000000000E+002+0.125000000000000E+002+0.125000010000000E+002+0.125000400000000E+002+0.124999600000000E+002+0.124999990000000E+002+0.125000000000000E+002+0.125000000000000E+002+0.125000000000000E+002+0.125000000000000E+002+0.125000000000000E+002+0.125000000000000E+002+0.125000010000000E+002+0.125000400000000E+002+0.124999600000000E+002+0.124999990000000E+002+0.125000000000000E+002+0.125000000000000E+002+0.125000000000000E+002+0.125000000000000E+002+0.125000000000000E+002+0.125000000000000E+002+0.125000010000000E+002+0.125000400000000E+002+0.124999600000000E+002+0.124999990000000E+002+0.125000000000000E+002+0.125000000000000E+002+0.125000000000000E+002+0.125000000000000E+002+0.125000000000000E+002+0.125000000000000E+002+0.125000010000000E+002+0.125000400000000E+002+0.124999600000000E+002+0.124999990000000E+002+0.125000000000000E+002+0.125000000000000E+002+0.125000000000000E+002+0.125000000000000E+002+0.125000000000000E+002+0.125000000000000E+002+0.125000010000000E+002+0.125000400000000E+002+0.124999600000000E+002+0.124999990000000E+002+0.125000000000000E+002+0.125000000000000E+002+0.125000000000000E+002+0.125000000000000E+002+0.125000000000000E+002+0.125000000000000E+002+0.125000010000000E+002+0.125000400000000E+002+0.124999600000000E+002+0.124999990000000E+002+0.125000000000000E+002+0.125000000000000E+002+0.125000000000000E+002+0.125000000000000E+002+0.125000000000000E+002+0.125000000000000E+002+0.125000010000000E+002+0.125000400000000E+002+0.124999600000000E+002+0.124999990000000E+002+0.125000000000000E+002+0.125000000000000E+002+0.125000000000000E+002+0.125000000000000E+002+0.125000000000000E+002+0.125000000000000E+002+0.125000010000000E+002+0.125000400000000E+002+0.124999600000000E+002+0.124999990000000E+002+0.125000000000000E+002+0.125000000000000E+002+0.125000000000000E+002+0.125000000000000E+002+0.125000000000000E+002+0.125000000000000E+002+0.125000010000000E+002+0.125000400000000E+002+0.124999600000000E+002+0.124999990000000E+002+0.125000000000000E+002+0.125000000000000E+002+0.125000000000000E+002+0.125000000000000E+002+0.125000000000000E+002+0.125000000000000E+002+0.125000010000000E+002+0.125000400000000E+002+0.124999600000000E+002+0.124999990000000E+002+0.125000000000000E+002+0.125000000000000E+002+0.125000000000000E+002+0.125000000000000E+002+0.125000000000000E+002+0.125000000000000E+002+0.125000010000000E+002+0.125000400000000E+002+0.124999600000000E+002+0.124999990000000E+002+0.125000000000000E+002+0.125000000000000E+002+0.125000000000000E+002+0.125000000000000E+002+0.125000000000000E+002+0.125000000000000E+002+0.125000010000000E+002+0.125000400000000E+002+0.124999600000000E+002+0.124999990000000E+002+0.125000000000000E+002+0.125000000000000E+002+0.125000000000000E+002+0.125000000000000E+002+0.125000000000000E+002+0.125000000000000E+002+0.125000010000000E+002+0.125000400000000E+002+0.124999600000000E+002+0.124999990000000E+002+0.125000000000000E+002+0.125000000000000E+002+0.125000000000000E+002+0.125000000000000E+002+0.125000000000000E+002+0.125000000000000E+002+0.125000010000000E+002+0.125000400000000E+002+0.124999600000000E+002+0.124999990000000E+002+0.125000000000000E+002+0.125000000000000E+002+0.125000000000000E+002+0.125000000000000E+002+0.125000000000000E+002+0.125000000000000E+002+0.125000010000000E+002+0.125000400000000E+002+0.124999600000000E+002+0.124999990000000E+002+0.125000000000000E+002+0.125000000000000E+002+0.125000000000000E+002+0.125000000000000E+002+0.125000000000000E+002+0.125000000000000E+002+0.125000010000000E+002+0.125000400000000E+002+0.124999600000000E+002+0.124999990000000E+002+0.125000000000000E+002+0.125000000000000E+002+0.125000000000000E+002+0.125000000000000E+002+0.125000000000000E+002+0.125000000000000E+002+0.125000010000000E+002+0.125000400000000E+002
        </DataArray>
      </PointData>
    </Piece>
  </UnstructuredGrid>
</VTKFile>
